# This is the file after MC interation.

         8788  atoms
         5  atom types

  -1.2530497314545641        46.253049731452897      xlo xhi
  -1.2551195373430890        46.255119537342502      ylo yhi
  -1.2485814740622672        46.248581474063855      zlo zhi

Masses

         1 58.933000000000000 #  Co
         2 63.545999999999999 #  Cu
         3 55.847000000000001 #  Fe
         4 58.692999999999998 #  Ni
         5 106.42000000000000 #  Pd

 Atoms # atomic

           1           2 -0.30736200000000002      -0.36930099999999999      -0.35488399999999998     
           2           3   1.4822000000000000      -0.38863999999999999        1.5753200000000001     
           3           1 -0.30521999999999999        1.5376500000000000        1.5484899999999999     
           4           5   1.5040199999999999        1.4651600000000000      -0.27676699999999999     
           5           5   3.4076399999999998      -0.35652600000000001      -0.28616300000000000     
           6           3   3.3737800000000000        1.4651700000000001        1.5393200000000000     
           7           1 -0.33402199999999999        3.3184800000000001      -0.26659600000000000     
           8           1   1.5561400000000001        3.3465199999999999        1.4972099999999999     
           9           1   3.3446300000000000        3.3283100000000001      -0.34539599999999998     
          10           1 -0.27349699999999999      -0.36718400000000001        3.3190200000000001     
          11           4   1.5525899999999999        1.4893300000000000        3.2707600000000001     
          12           4   3.3314200000000000      -0.41095799999999999        3.2751899999999998     
          13           3 -0.27037099999999997        3.3225099999999999        3.2820999999999998     
          14           4   3.3225300000000000        3.3296100000000002        3.3408899999999999     
          15           4   1.5802200000000000      -0.39396799999999998        5.0744199999999999     
          16           5 -0.25213000000000002        1.4740800000000001        5.1040999999999999     
          17           4   3.3278699999999999        1.4373100000000001        5.1072600000000001     
          18           1   1.5744300000000000        3.3332099999999998        5.1186999999999996     
          19           2 -0.29681900000000000      -0.39406000000000002        7.0107499999999998     
          20           4   1.5742499999999999      -0.34028799999999998        8.8239000000000001     
          21           3 -0.26973599999999998        1.4938800000000001        8.7681100000000001     
          22           4   1.5476300000000001        1.4216400000000000        6.9770399999999997     
          23           4   3.3664900000000002      -0.31969999999999998        6.9591000000000003     
          24           4   3.3585799999999999        1.4525500000000000        8.8046500000000005     
          25           3 -0.20614700000000000        3.2973900000000000        6.9833800000000004     
          26           1   1.5861600000000000        3.2292800000000002        8.7698599999999995     
          27           4   3.3016299999999998        3.2231200000000002        6.9330400000000001     
          28           5 -0.24987200000000001        3.2483599999999999        10.610300000000001     
          29           5 -0.27644400000000002      -0.32957500000000001        10.613600000000000     
          30           4   1.5410500000000000      -0.36701400000000001        12.422499999999999     
          31           3 -0.25576300000000002        1.4475700000000000        12.486300000000000     
          32           4   1.5999000000000001        1.4630900000000000        10.632300000000001     
          33           4   3.3526500000000001      -0.35558400000000001        10.642899999999999     
          34           1   3.3265199999999999        1.4573300000000000        12.400800000000000     
          35           5   3.3087100000000000        3.2571699999999999        14.263600000000000     
          36           1   1.5132000000000001        3.2837900000000002        12.462999999999999     
          37           4   3.3060600000000000        3.2586800000000000        10.655300000000000     
          38           1 -0.25637300000000002      -0.37122699999999997        14.223699999999999     
          39           3   1.4980400000000000      -0.34337099999999998        16.033300000000001     
          40           1 -0.29969800000000002        1.4506500000000000        16.090399999999999     
          41           1   1.4695499999999999        1.4549300000000001        14.239100000000001     
          42           5   3.3651800000000001      -0.32080300000000000        14.243499999999999     
          43           2   3.3449200000000001        1.4603900000000001        16.139199999999999     
          44           1 -0.27078099999999999        3.2990599999999999        14.295900000000000     
          45           1   1.4700299999999999        3.2993500000000000        16.141999999999999     
          46           1 -0.37852700000000000      -0.35307500000000003        17.923100000000002     
          47           3   1.4478500000000001      -0.39558599999999999        19.840900000000001     
          48           1 -0.37963700000000000        1.4362600000000001        19.785100000000000     
          49           5   1.4736300000000000        1.4305600000000001        17.958800000000000     
          50           5   3.4097599999999999      -0.36679499999999998        17.983899999999998     
          51           2   3.4174699999999998        1.4629600000000000        19.801800000000000     
          52           1 -0.39860699999999999        3.2930600000000001        17.940799999999999     
          53           5   1.4663999999999999        3.2713000000000001        19.805099999999999     
          54           2   3.3925500000000000        3.2887800000000000        18.003399999999999     
          55           1 -0.31966600000000001      -0.44610600000000000        21.588600000000000     
          56           3   1.4439299999999999        1.3997400000000000        21.611899999999999     
          57           5   3.3542399999999999      -0.35530800000000001        21.622900000000001     
          58           1 -0.36337700000000001        3.2725399999999998        21.628499999999999     
          59           5   3.3342000000000001        3.2020000000000000        21.617200000000000     
          60           4   1.5124400000000000      -0.41617599999999999        23.495799999999999     
          61           5 -0.31426399999999999        1.4036100000000000        23.490100000000002     
          62           3   3.2902300000000002        1.3934200000000001        23.438400000000001     
          63           3   1.4892399999999999        3.2513000000000001        23.380900000000000     
          64           3 -0.37302200000000002      -0.42135800000000001        25.335999999999999     
          65           5   1.5355399999999999      -0.41842600000000002        27.052199999999999     
          66           3 -0.31366300000000003        1.4526900000000000        26.988499999999998     
          67           4   1.5045900000000001        1.3985300000000001        25.254400000000000     
          68           4   3.3667400000000001      -0.41311100000000001        25.207899999999999     
          69           2   3.3333900000000001        1.3930300000000000        27.121400000000001     
          70           1 -0.27364100000000002        3.2864399999999998        25.230599999999999     
          71           3   1.4387600000000000        3.2404400000000000        27.072299999999998     
          72           5   3.2574500000000000        3.2391700000000001        25.233799999999999     
          73           5 -0.34650300000000001      -0.42163200000000001        28.848600000000001     
          74           5   1.4619200000000001      -0.40775899999999998        30.714500000000001     
          75           3 -0.31798799999999999        1.5336300000000000        30.776000000000000     
          76           3   1.4425800000000000        1.5100800000000001        28.885899999999999     
          77           4   3.3470700000000000      -0.42264000000000002        28.902400000000000     
          78           5   3.2925399999999998        1.4489200000000000        30.734999999999999     
          79           1 -0.33155800000000002        3.2416700000000001        28.912500000000001     
          80           3   1.4310900000000000        3.2642099999999998        30.805399999999999     
          81           2   3.3025899999999999        3.2901799999999999        28.941600000000001     
          82           2 -0.31501400000000002      -0.39000400000000002        32.574500000000000     
          83           2   1.4329799999999999        1.4740200000000001        32.608499999999999     
          84           2   3.2525400000000002      -0.37785299999999999        32.586700000000000     
          85           1 -0.35747400000000001        3.2968999999999999        32.590499999999999     
          86           2   3.2902999999999998        3.2518799999999999        32.575000000000003     
          87           2 -0.37609799999999999        1.4669300000000001        34.386099999999999     
          88           2   3.2610299999999999        1.4684800000000000        34.339900000000000     
          89           2   1.4342900000000001        3.2735400000000001        34.350000000000001     
          90           2   1.4998899999999999      -0.37940400000000002        34.380699999999997     
          91           3   3.3265600000000002        3.2411300000000001        39.806500000000000     
          92           3 -0.34373500000000001        3.2450500000000000        39.767899999999997     
          93           5   3.2836500000000002      -0.35375200000000001        39.804000000000002     
          94           4 -0.33756000000000003      -0.33677099999999999        36.214599999999997     
          95           4   1.4557400000000000      -0.35127100000000000        37.965299999999999     
          96           4 -0.35650199999999999        1.4384600000000001        38.010599999999997     
          97           2   1.4754100000000001        1.4456899999999999        36.146999999999998     
          98           4   3.2946100000000000      -0.37362099999999998        36.175699999999999     
          99           2   3.2839000000000000        1.4770200000000000        37.967599999999997     
         100           2 -0.39223200000000003        3.2636599999999998        36.208399999999997     
         101           2   1.4586500000000000        3.2389199999999998        37.985500000000002     
         102           2   3.3266100000000001        3.2513000000000001        36.106699999999996     
         103           1 -0.30437999999999998      -0.32517299999999999        39.756900000000002     
         104           1   1.4657800000000001        1.4743500000000000        39.803500000000000     
         105           3   1.5043200000000001      -0.34970200000000001        41.619000000000000     
         106           3 -0.27409000000000000        1.4360700000000000        41.542999999999999     
         107           3   3.3074900000000000        1.4570600000000000        41.644300000000001     
         108           5   1.5236400000000001        3.2679999999999998        41.604799999999997     
         109           5 -0.29307100000000003      -0.34853600000000001        43.527099999999997     
         110           3   1.5067100000000000      -0.34610800000000003        45.343400000000003     
         111           3 -0.34516599999999997        1.4882299999999999        45.405999999999999     
         112           3   1.5159800000000001        1.4502400000000000        43.502200000000002     
         113           5   3.3425900000000000      -0.33505099999999999        43.485900000000001     
         114           3   3.3877299999999999        1.4646100000000000        45.352499999999999     
         115           5 -0.25688600000000000        3.3068700000000000        43.463400000000000     
         116           5   1.5151100000000000        3.3277399999999999        45.371699999999997     
         117           3   3.3005700000000000        3.2540700000000000        43.520899999999997     
         118           5 -0.30288300000000001        5.1699900000000003        1.5205100000000000     
         119           1   1.5119700000000000        5.1641199999999996      -0.31003799999999998     
         120           1   3.2677299999999998        5.1460299999999997        1.4535899999999999     
         121           1 -0.27682800000000002        7.0021699999999996      -0.30288399999999999     
         122           1   1.5257300000000000        6.9890299999999996        1.4911900000000000     
         123           1 -0.32002900000000001        8.7928599999999992        1.5010399999999999     
         124           3   1.4560900000000001        8.7686100000000007      -0.28422199999999997     
         125           1   3.2509600000000001        6.9481000000000002      -0.30273800000000001     
         126           2   3.3269700000000002        8.7916899999999991        1.4627500000000000     
         127           1   1.5883300000000000        5.1537100000000002        3.2904599999999999     
         128           3 -0.31189899999999998        6.9982600000000001        3.2939300000000000     
         129           5   1.5108200000000001        8.8128399999999996        3.3143899999999999     
         130           4   3.3248700000000002        6.9648000000000003        3.2721000000000000     
         131           3 -0.31194499999999997        10.598599999999999      -0.31469500000000000     
         132           5 -0.24997400000000000        5.1628600000000002        5.1120799999999997     
         133           1   3.3162199999999999        5.1132799999999996        5.1154000000000002     
         134           4   1.5863499999999999        6.9673900000000000        5.1585799999999997     
         135           4 -0.30928299999999997        8.8186099999999996        5.1434499999999996     
         136           4   3.3908600000000000        8.8304399999999994        5.1146599999999998     
         137           5 -0.19622500000000001        5.1689400000000001        8.7539400000000001     
         138           3   1.6190000000000000        5.1156600000000001        6.9361600000000001     
         139           2   3.2700000000000000        5.0950100000000003        8.8082499999999992     
         140           1 -0.26567700000000000        7.0536000000000003        6.9579500000000003     
         141           4   1.5732900000000001        6.9982100000000003        8.7060399999999998     
         142           1 -0.30279299999999998        8.8052600000000005        8.7162299999999995     
         143           4   1.5631800000000000        8.8293199999999992        6.9534300000000000     
         144           1   3.3614400000000000        6.9780600000000002        6.9626500000000000     
         145           3   3.3769900000000002        8.7991299999999999        8.7681299999999993     
         146           4 -0.26879999999999998        10.604900000000001        6.9563699999999997     
         147           5   1.4907699999999999        8.7791300000000003        10.567900000000000     
         148           2   3.3208199999999999        6.9426399999999999        10.624000000000001     
         149           2 -0.31055800000000000        10.545299999999999        10.578600000000000     
         150           2 -0.27397199999999999        5.1459500000000000        12.492599999999999     
         151           2   1.5717600000000000        5.1212600000000004        10.662100000000001     
         152           2   3.2862600000000000        5.1044499999999999        12.447100000000001     
         153           2 -0.28986200000000001        6.9905799999999996        10.609500000000001     
         154           2   1.4733799999999999        6.9370500000000002        12.510600000000000     
         155           2 -0.30432399999999998        8.7646499999999996        12.511100000000001     
         156           5 -0.31552799999999998        10.591799999999999        14.366600000000000     
         157           3   3.3581300000000001        8.7925599999999999        16.184200000000001     
         158           5   3.3646600000000002        8.7634799999999995        12.470200000000000     
         159           1 -0.35950199999999999        5.0607600000000001        16.109700000000000     
         160           3   1.4529399999999999        5.0821500000000004        14.299200000000001     
         161           3   3.3703699999999999        5.0554600000000001        16.190500000000000     
         162           4 -0.33756000000000003        6.9671300000000000        14.319200000000000     
         163           5   1.4577300000000000        6.9043999999999999        16.142499999999998     
         164           3 -0.38128200000000001        8.7854100000000006        16.144200000000001     
         165           3   1.4667600000000001        8.7527299999999997        14.351000000000001     
         166           5   3.3545699999999998        6.8990200000000002        14.333200000000000     
         167           3 -0.40711900000000001        5.0566399999999998        19.820900000000002     
         168           3   1.4495899999999999        5.0324400000000002        17.972200000000001     
         169           3   3.3996000000000000        5.0603699999999998        19.780400000000000     
         170           5 -0.41650500000000001        6.9081999999999999        17.999800000000000     
         171           5   1.5005599999999999        6.8702699999999997        19.835699999999999     
         172           3 -0.39732299999999998        8.8045799999999996        19.864200000000000     
         173           5   1.4903999999999999        8.8343100000000003        18.013500000000001     
         174           5   3.4047200000000002        6.8872600000000004        17.976400000000002     
         175           2   3.4249999999999998        8.8325399999999998        19.765799999999999     
         176           3   1.5060800000000001        5.0590200000000003        21.626100000000001     
         177           3 -0.40946399999999999        6.8643000000000001        21.581900000000001     
         178           2   1.5663800000000001        8.8430000000000000        21.494800000000001     
         179           2   3.3996300000000002        6.9527299999999999        21.537900000000000     
         180           1 -0.35540100000000002        5.0370200000000001        23.373999999999999     
         181           3   3.3122799999999999        5.1295999999999999        23.370400000000000     
         182           5   1.5421300000000000        6.9696800000000003        23.344799999999999     
         183           5 -0.36584200000000000        8.8126099999999994        23.309600000000000     
         184           2   3.3702299999999998        8.8154299999999992        23.369000000000000     
         185           3 -0.35105199999999998        5.0896800000000004        27.094400000000000     
         186           5   1.4922000000000000        5.1031100000000000        25.226800000000001     
         187           3   3.3058000000000001        5.1528700000000001        27.081700000000001     
         188           5 -0.38606600000000002        6.9459499999999998        25.216400000000000     
         189           5   1.4754300000000000        7.0031499999999998        27.074000000000002     
         190           2 -0.39266600000000002        8.8167399999999994        27.093399999999999     
         191           3   1.5091399999999999        8.8057200000000009        25.238299999999999     
         192           3   3.3176800000000002        7.0244799999999996        25.230300000000000     
         193           3   3.3279800000000002        8.7995699999999992        27.029800000000002     
         194           2 -0.29691400000000001        10.613500000000000        25.227399999999999     
         195           2   1.4625800000000000        10.546200000000001        27.034300000000002     
         196           5   3.3248400000000000        10.642500000000000        25.239300000000000     
         197           4 -0.37103700000000001        5.0327299999999999        30.758600000000001     
         198           5   1.4617000000000000        5.0628700000000002        28.905000000000001     
         199           5   3.3453800000000000        5.0794699999999997        30.817299999999999     
         200           3 -0.40305800000000003        6.9651500000000004        28.895000000000000     
         201           5   1.4434899999999999        6.9422699999999997        30.745500000000000     
         202           2 -0.39396399999999998        8.8268799999999992        30.729299999999999     
         203           2   1.4285000000000001        8.8534199999999998        28.936900000000001     
         204           5   3.3786600000000000        7.0213200000000002        28.942200000000000     
         205           2   3.4115199999999999        8.8074300000000001        30.772200000000002     
         206           2   1.4477100000000001        5.0923900000000000        32.589900000000000     
         207           2 -0.36958299999999999        6.8773099999999996        32.597700000000003     
         208           2   1.5419700000000001        8.7702600000000004        32.554699999999997     
         209           2   3.3639999999999999        6.9530099999999999        32.522399999999998     
         210           2 -0.39509300000000003        10.577999999999999        28.929900000000000     
         211           2   1.5146200000000001        10.637600000000001        30.782699999999998     
         212           5   3.3813300000000002        10.586900000000000        28.914200000000001     
         213           4 -0.36584499999999998        5.0979599999999996        34.351599999999998     
         214           2   3.3460999999999999        5.1153300000000002        34.336199999999998     
         215           2   1.5065100000000000        6.9292299999999996        34.364899999999999     
         216           3   3.3033899999999998        10.600400000000000        39.855499999999999     
         217           4 -0.34674400000000000        10.639300000000000        39.853000000000002     
         218           3   3.3554599999999999        10.605100000000000        36.167800000000000     
         219           5 -0.37245000000000000        8.7234900000000000        34.392499999999998     
         220           5   3.3834100000000000        8.7713599999999996        34.390700000000002     
         221           4 -0.39187400000000000        5.1571899999999999        38.031100000000002     
         222           5   1.4272199999999999        5.1301100000000002        36.192700000000002     
         223           5   3.3922699999999999        5.0987400000000003        37.955500000000001     
         224           1 -0.35068400000000000        6.9521899999999999        36.219400000000000     
         225           3   1.4221699999999999        7.0397999999999996        37.998399999999997     
         226           1 -0.37164799999999998        8.7551699999999997        38.016700000000000     
         227           3   1.5338099999999999        8.7176700000000000        36.187199999999997     
         228           2   3.3925700000000001        7.0071300000000001        36.203600000000002     
         229           1   3.3448600000000002        8.7904499999999999        37.983100000000000     
         230           5   1.4576800000000001        5.1166999999999998        39.785800000000002     
         231           1 -0.34299299999999999        7.0069400000000002        39.819200000000002     
         232           1   1.4525900000000000        8.8069699999999997        39.857999999999997     
         233           5   3.3126699999999998        7.0301799999999997        39.811599999999999     
         234           5 -0.35767900000000002        10.622500000000000        36.207099999999997     
         235           5   1.5379499999999999        10.611900000000000        38.020499999999998     
         236           3 -0.29479699999999998        5.1694199999999997        41.594000000000001     
         237           3   3.2638900000000000        5.1083699999999999        41.636299999999999     
         238           1   1.4723700000000000        7.0016200000000000        41.614600000000003     
         239           1 -0.34157700000000002        8.8248599999999993        41.620199999999997     
         240           3   3.2683000000000000        8.8867600000000007        41.647700000000000     
         241           3 -0.28633399999999998        5.1538500000000003        45.416600000000003     
         242           3   1.5378700000000001        5.1589999999999998        43.473100000000002     
         243           1   3.2816700000000001        5.1682800000000002        45.392400000000002     
         244           5 -0.26999000000000001        6.9861899999999997        43.478999999999999     
         245           1   1.4714400000000001        6.9410200000000000        45.387200000000000     
         246           3 -0.28815000000000002        8.8320799999999995        45.335099999999997     
         247           3   1.4848500000000000        8.8563399999999994        43.421999999999997     
         248           3   3.1985199999999998        6.9734600000000002        43.464199999999998     
         249           5   3.2703899999999999        8.8099000000000007        45.350700000000003     
         250           4   1.4651700000000001        10.649300000000000        41.639299999999999     
         251           4   3.3061500000000001        14.213900000000001        3.3375699999999999     
         252           2   1.4638100000000001        10.646900000000000        1.4804900000000001     
         253           2 -0.30232599999999998        12.453700000000000        1.5111100000000000     
         254           2   1.4610000000000001        12.527799999999999      -0.33843299999999998     
         255           5   3.3460899999999998        10.701700000000001      -0.28969600000000001     
         256           2   3.3196800000000000        12.504200000000001        1.5177600000000000     
         257           2 -0.29970599999999997        14.323900000000000      -0.31503399999999998     
         258           2   1.5161600000000000        14.234100000000000        1.5171600000000001     
         259           2 -0.33279599999999998        16.049800000000001        1.5242599999999999     
         260           2   1.5133399999999999        16.042999999999999      -0.36166399999999999     
         261           2   3.3353000000000002        14.223300000000000      -0.38956299999999999     
         262           5   3.3730500000000001        16.089500000000001        1.4681299999999999     
         263           4 -0.31373200000000001        10.647700000000000        3.3172899999999998     
         264           4   1.5305000000000000        12.457200000000000        3.3296299999999999     
         265           4   3.3455499999999998        10.669800000000000        3.2732800000000002     
         266           2 -0.26655499999999999        14.223100000000001        3.3073199999999998     
         267           2   1.5634200000000000        16.109900000000000        3.3307000000000002     
         268           4   1.5200700000000000        10.681200000000000        5.1326000000000001     
         269           2 -0.23964199999999999        12.399200000000000        5.1025299999999998     
         270           4   3.3068300000000002        12.448600000000001        5.1561700000000004     
         271           4   1.5728700000000000        14.223300000000000        5.1515800000000000     
         272           5 -0.28638599999999997        16.141800000000000        5.1127700000000003     
         273           4   3.3238799999999999        16.116000000000000        5.1916700000000002     
         274           4   3.3045499999999999        16.107199999999999        8.7438900000000004     
         275           4   1.5142500000000001        10.626899999999999        8.7458200000000001     
         276           2 -0.25948599999999999        12.399900000000001        8.8078400000000006     
         277           4   1.5502199999999999        12.405900000000001        6.9534599999999998     
         278           4   3.3612099999999998        10.642300000000001        6.9595500000000001     
         279           4   3.3252400000000000        12.454200000000000        8.7168799999999997     
         280           5 -0.23916799999999999        14.248600000000000        6.9912400000000003     
         281           4   1.5773800000000000        14.256900000000000        8.7664600000000004     
         282           2 -0.23302300000000001        16.107500000000002        8.8130100000000002     
         283           1   1.5836600000000001        16.124199999999998        6.9707600000000003     
         284           1   3.2914900000000000        14.263600000000000        6.9662600000000001     
         285           2   1.4992900000000000        12.449600000000000        10.579599999999999     
         286           5   3.3557100000000002        10.671500000000000        10.597700000000000     