 # Fcc Cu oriented X=[100] Y=[010] Z=[001].
 
        4000  atoms
           2  atom types
 
      0.000000000000      36.150000000000  xlo xhi
      0.000000000000      36.150000000000  ylo yhi
      0.000000000000      36.150000000000  zlo zhi
 
Masses
 
            1   180.94788000            # Ta
            2   63.54600000             # Cu
 
Atoms # atomic
 
         1    1        0.000000000000       0.000000000000       0.000000000000
         2    2        1.807500000000       1.807500000000       0.000000000000
         3    1        0.000000000000       1.807500000000       1.807500000000
         4    1        1.807500000000       0.000000000000       1.807500000000
         5    2        3.615000000000       0.000000000000       0.000000000000
         6    2        5.422500000000       1.807500000000       0.000000000000
         7    1        3.615000000000       1.807500000000       1.807500000000
         8    1        5.422500000000       0.000000000000       1.807500000000
         9    1        7.230000000000       0.000000000000       0.000000000000
        10    1        9.037500000000       1.807500000000       0.000000000000
        11    1        7.230000000000       1.807500000000       1.807500000000
        12    1        9.037500000000       0.000000000000       1.807500000000
        13    1       10.845000000000       0.000000000000       0.000000000000
        14    2       12.652500000000       1.807500000000       0.000000000000
        15    2       10.845000000000       1.807500000000       1.807500000000
        16    2       12.652500000000       0.000000000000       1.807500000000
        17    2       14.460000000000       0.000000000000       0.000000000000
        18    2       16.267500000000       1.807500000000       0.000000000000
        19    2       14.460000000000       1.807500000000       1.807500000000
        20    2       16.267500000000       0.000000000000       1.807500000000
        21    2       18.075000000000       0.000000000000       0.000000000000
        22    1       19.882500000000       1.807500000000       0.000000000000
        23    1       18.075000000000       1.807500000000       1.807500000000
        24    2       19.882500000000       0.000000000000       1.807500000000
        25    1       21.690000000000       0.000000000000       0.000000000000
        26    1       23.497500000000       1.807500000000       0.000000000000
        27    1       21.690000000000       1.807500000000       1.807500000000
        28    1       23.497500000000       0.000000000000       1.807500000000
        29    1       25.305000000000       0.000000000000       0.000000000000
        30    2       27.112500000000       1.807500000000       0.000000000000
        31    1       25.305000000000       1.807500000000       1.807500000000
        32    1       27.112500000000       0.000000000000       1.807500000000
        33    1       28.920000000000       0.000000000000       0.000000000000
        34    1       30.727500000000       1.807500000000       0.000000000000
        35    1       28.920000000000       1.807500000000       1.807500000000
        36    1       30.727500000000       0.000000000000       1.807500000000
        37    2       32.535000000000       0.000000000000       0.000000000000
        38    2       34.342500000000       1.807500000000       0.000000000000
        39    2       32.535000000000       1.807500000000       1.807500000000
        40    2       34.342500000000       0.000000000000       1.807500000000
        41    1        0.000000000000       3.615000000000       0.000000000000
        42    2        1.807500000000       5.422500000000       0.000000000000
        43    1        0.000000000000       5.422500000000       1.807500000000
        44    2        1.807500000000       3.615000000000       1.807500000000
        45    2        3.615000000000       3.615000000000       0.000000000000
        46    2        5.422500000000       5.422500000000       0.000000000000
        47    2        3.615000000000       5.422500000000       1.807500000000
        48    2        5.422500000000       3.615000000000       1.807500000000
        49    2        7.230000000000       3.615000000000       0.000000000000
        50    2        9.037500000000       5.422500000000       0.000000000000
        51    2        7.230000000000       5.422500000000       1.807500000000
        52    2        9.037500000000       3.615000000000       1.807500000000
        53    2       10.845000000000       3.615000000000       0.000000000000
        54    1       12.652500000000       5.422500000000       0.000000000000
        55    2       10.845000000000       5.422500000000       1.807500000000
        56    2       12.652500000000       3.615000000000       1.807500000000
        57    2       14.460000000000       3.615000000000       0.000000000000
        58    1       16.267500000000       5.422500000000       0.000000000000
        59    2       14.460000000000       5.422500000000       1.807500000000
        60    1       16.267500000000       3.615000000000       1.807500000000
        61    1       18.075000000000       3.615000000000       0.000000000000
        62    1       19.882500000000       5.422500000000       0.000000000000
        63    1       18.075000000000       5.422500000000       1.807500000000
        64    1       19.882500000000       3.615000000000       1.807500000000
        65    2       21.690000000000       3.615000000000       0.000000000000
        66    2       23.497500000000       5.422500000000       0.000000000000
        67    1       21.690000000000       5.422500000000       1.807500000000
        68    1       23.497500000000       3.615000000000       1.807500000000
        69    2       25.305000000000       3.615000000000       0.000000000000
        70    2       27.112500000000       5.422500000000       0.000000000000
        71    2       25.305000000000       5.422500000000       1.807500000000
        72    2       27.112500000000       3.615000000000       1.807500000000
        73    1       28.920000000000       3.615000000000       0.000000000000
        74    2       30.727500000000       5.422500000000       0.000000000000
        75    1       28.920000000000       5.422500000000       1.807500000000
        76    1       30.727500000000       3.615000000000       1.807500000000
        77    1       32.535000000000       3.615000000000       0.000000000000
        78    2       34.342500000000       5.422500000000       0.000000000000
        79    1       32.535000000000       5.422500000000       1.807500000000
        80    1       34.342500000000       3.615000000000       1.807500000000
        81    1        0.000000000000       7.230000000000       0.000000000000
        82    2        1.807500000000       9.037500000000       0.000000000000
        83    1        0.000000000000       9.037500000000       1.807500000000
        84    2        1.807500000000       7.230000000000       1.807500000000
        85    2        3.615000000000       7.230000000000       0.000000000000
        86    2        5.422500000000       9.037500000000       0.000000000000
        87    1        3.615000000000       9.037500000000       1.807500000000
        88    2        5.422500000000       7.230000000000       1.807500000000
        89    1        7.230000000000       7.230000000000       0.000000000000
        90    2        9.037500000000       9.037500000000       0.000000000000
        91    1        7.230000000000       9.037500000000       1.807500000000
        92    1        9.037500000000       7.230000000000       1.807500000000
        93    2       10.845000000000       7.230000000000       0.000000000000
        94    2       12.652500000000       9.037500000000       0.000000000000
        95    2       10.845000000000       9.037500000000       1.807500000000
        96    2       12.652500000000       7.230000000000       1.807500000000
        97    2       14.460000000000       7.230000000000       0.000000000000
        98    1       16.267500000000       9.037500000000       0.000000000000
        99    1       14.460000000000       9.037500000000       1.807500000000
       100    1       16.267500000000       7.230000000000       1.807500000000
       101    2       18.075000000000       7.230000000000       0.000000000000
       102    2       19.882500000000       9.037500000000       0.000000000000
       103    1       18.075000000000       9.037500000000       1.807500000000
       104    1       19.882500000000       7.230000000000       1.807500000000
       105    1       21.690000000000       7.230000000000       0.000000000000
       106    2       23.497500000000       9.037500000000       0.000000000000
       107    1       21.690000000000       9.037500000000       1.807500000000
       108    1       23.497500000000       7.230000000000       1.807500000000
       109    1       25.305000000000       7.230000000000       0.000000000000
       110    2       27.112500000000       9.037500000000       0.000000000000
       111    2       25.305000000000       9.037500000000       1.807500000000
       112    1       27.112500000000       7.230000000000       1.807500000000
       113    2       28.920000000000       7.230000000000       0.000000000000
       114    2       30.727500000000       9.037500000000       0.000000000000
       115    2       28.920000000000       9.037500000000       1.807500000000
       116    2       30.727500000000       7.230000000000       1.807500000000
       117    1       32.535000000000       7.230000000000       0.000000000000
       118    2       34.342500000000       9.037500000000       0.000000000000
       119    2       32.535000000000       9.037500000000       1.807500000000
       120    2       34.342500000000       7.230000000000       1.807500000000
       121    2        0.000000000000      10.845000000000       0.000000000000
       122    2        1.807500000000      12.652500000000       0.000000000000
       123    1        0.000000000000      12.652500000000       1.807500000000
       124    2        1.807500000000      10.845000000000       1.807500000000
       125    2        3.615000000000      10.845000000000       0.000000000000
       126    2        5.422500000000      12.652500000000       0.000000000000
       127    1        3.615000000000      12.652500000000       1.807500000000
       128    1        5.422500000000      10.845000000000       1.807500000000
       129    1        7.230000000000      10.845000000000       0.000000000000
       130    2        9.037500000000      12.652500000000       0.000000000000
       131    1        7.230000000000      12.652500000000       1.807500000000
       132    1        9.037500000000      10.845000000000       1.807500000000
       133    2       10.845000000000      10.845000000000       0.000000000000
       134    2       12.652500000000      12.652500000000       0.000000000000
       135    1       10.845000000000      12.652500000000       1.807500000000
       136    1       12.652500000000      10.845000000000       1.807500000000
       137    2       14.460000000000      10.845000000000       0.000000000000
       138    2       16.267500000000      12.652500000000       0.000000000000
       139    2       14.460000000000      12.652500000000       1.807500000000
       140    1       16.267500000000      10.845000000000       1.807500000000
       141    2       18.075000000000      10.845000000000       0.000000000000
       142    1       19.882500000000      12.652500000000       0.000000000000
       143    1       18.075000000000      12.652500000000       1.807500000000
       144    1       19.882500000000      10.845000000000       1.807500000000
       145    1       21.690000000000      10.845000000000       0.000000000000
       146    1       23.497500000000      12.652500000000       0.000000000000
       147    1       21.690000000000      12.652500000000       1.807500000000
       148    2       23.497500000000      10.845000000000       1.807500000000
       149    1       25.305000000000      10.845000000000       0.000000000000
       150    2       27.112500000000      12.652500000000       0.000000000000
       151    1       25.305000000000      12.652500000000       1.807500000000
       152    2       27.112500000000      10.845000000000       1.807500000000
       153    1       28.920000000000      10.845000000000       0.000000000000
       154    2       30.727500000000      12.652500000000       0.000000000000
       155    1       28.920000000000      12.652500000000       1.807500000000
       156    2       30.727500000000      10.845000000000       1.807500000000
       157    1       32.535000000000      10.845000000000       0.000000000000
       158    1       34.342500000000      12.652500000000       0.000000000000
       159    1       32.535000000000      12.652500000000       1.807500000000
       160    1       34.342500000000      10.845000000000       1.807500000000
       161    1        0.000000000000      14.460000000000       0.000000000000
       162    1        1.807500000000      16.267500000000       0.000000000000
       163    2        0.000000000000      16.267500000000       1.807500000000
       164    1        1.807500000000      14.460000000000       1.807500000000
       165    1        3.615000000000      14.460000000000       0.000000000000
       166    2        5.422500000000      16.267500000000       0.000000000000
       167    2        3.615000000000      16.267500000000       1.807500000000
       168    2        5.422500000000      14.460000000000       1.807500000000
       169    2        7.230000000000      14.460000000000       0.000000000000
       170    2        9.037500000000      16.267500000000       0.000000000000
       171    1        7.230000000000      16.267500000000       1.807500000000
       172    2        9.037500000000      14.460000000000       1.807500000000
       173    2       10.845000000000      14.460000000000       0.000000000000
       174    2       12.652500000000      16.267500000000       0.000000000000
       175    2       10.845000000000      16.267500000000       1.807500000000
       176    1       12.652500000000      14.460000000000       1.807500000000
       177    1       14.460000000000      14.460000000000       0.000000000000
       178    2       16.267500000000      16.267500000000       0.000000000000
       179    2       14.460000000000      16.267500000000       1.807500000000
       180    1       16.267500000000      14.460000000000       1.807500000000
       181    2       18.075000000000      14.460000000000       0.000000000000
       182    1       19.882500000000      16.267500000000       0.000000000000
       183    2       18.075000000000      16.267500000000       1.807500000000
       184    2       19.882500000000      14.460000000000       1.807500000000
       185    1       21.690000000000      14.460000000000       0.000000000000
       186    1       23.497500000000      16.267500000000       0.000000000000
       187    1       21.690000000000      16.267500000000       1.807500000000
       188    1       23.497500000000      14.460000000000       1.807500000000
       189    1       25.305000000000      14.460000000000       0.000000000000
       190    1       27.112500000000      16.267500000000       0.000000000000
       191    1       25.305000000000      16.267500000000       1.807500000000
       192    1       27.112500000000      14.460000000000       1.807500000000
       193    1       28.920000000000      14.460000000000       0.000000000000
       194    1       30.727500000000      16.267500000000       0.000000000000
       195    1       28.920000000000      16.267500000000       1.807500000000
       196    2       30.727500000000      14.460000000000       1.807500000000
       197    1       32.535000000000      14.460000000000       0.000000000000
       198    1       34.342500000000      16.267500000000       0.000000000000
       199    1       32.535000000000      16.267500000000       1.807500000000
       200    2       34.342500000000      14.460000000000       1.807500000000
       201    2        0.000000000000      18.075000000000       0.000000000000
       202    1        1.807500000000      19.882500000000       0.000000000000
       203    2        0.000000000000      19.882500000000       1.807500000000
       204    2        1.807500000000      18.075000000000       1.807500000000
       205    2        3.615000000000      18.075000000000       0.000000000000
       206    2        5.422500000000      19.882500000000       0.000000000000
       207    2        3.615000000000      19.882500000000       1.807500000000
       208    1        5.422500000000      18.075000000000       1.807500000000
       209    2        7.230000000000      18.075000000000       0.000000000000
       210    2        9.037500000000      19.882500000000       0.000000000000
       211    1        7.230000000000      19.882500000000       1.807500000000
       212    1        9.037500000000      18.075000000000       1.807500000000
       213    2       10.845000000000      18.075000000000       0.000000000000
       214    1       12.652500000000      19.882500000000       0.000000000000
       215    1       10.845000000000      19.882500000000       1.807500000000
       216    2       12.652500000000      18.075000000000       1.807500000000
       217    2       14.460000000000      18.075000000000       0.000000000000
       218    2       16.267500000000      19.882500000000       0.000000000000
       219    1       14.460000000000      19.882500000000       1.807500000000
       220    2       16.267500000000      18.075000000000       1.807500000000
       221    2       18.075000000000      18.075000000000       0.000000000000
       222    2       19.882500000000      19.882500000000       0.000000000000
       223    2       18.075000000000      19.882500000000       1.807500000000
       224    1       19.882500000000      18.075000000000       1.807500000000
       225    1       21.690000000000      18.075000000000       0.000000000000
       226    1       23.497500000000      19.882500000000       0.000000000000
       227    2       21.690000000000      19.882500000000       1.807500000000
       228    2       23.497500000000      18.075000000000       1.807500000000
       229    2       25.305000000000      18.075000000000       0.000000000000
       230    1       27.112500000000      19.882500000000       0.000000000000
       231    2       25.305000000000      19.882500000000       1.807500000000
       232    1       27.112500000000      18.075000000000       1.807500000000
       233    1       28.920000000000      18.075000000000       0.000000000000
       234    2       30.727500000000      19.882500000000       0.000000000000
       235    1       28.920000000000      19.882500000000       1.807500000000
       236    1       30.727500000000      18.075000000000       1.807500000000
       237    2       32.535000000000      18.075000000000       0.000000000000
       238    2       34.342500000000      19.882500000000       0.000000000000
       239    2       32.535000000000      19.882500000000       1.807500000000
       240    1       34.342500000000      18.075000000000       1.807500000000
       241    1        0.000000000000      21.690000000000       0.000000000000
       242    2        1.807500000000      23.497500000000       0.000000000000
       243    2        0.000000000000      23.497500000000       1.807500000000
       244    2        1.807500000000      21.690000000000       1.807500000000
       245    1        3.615000000000      21.690000000000       0.000000000000
       246    1        5.422500000000      23.497500000000       0.000000000000
       247    1        3.615000000000      23.497500000000       1.807500000000
       248    1        5.422500000000      21.690000000000       1.807500000000
       249    1        7.230000000000      21.690000000000       0.000000000000
       250    1        9.037500000000      23.497500000000       0.000000000000
       251    1        7.230000000000      23.497500000000       1.807500000000
       252    1        9.037500000000      21.690000000000       1.807500000000
       253    2       10.845000000000      21.690000000000       0.000000000000
       254    2       12.652500000000      23.497500000000       0.000000000000
       255    1       10.845000000000      23.497500000000       1.807500000000
       256    1       12.652500000000      21.690000000000       1.807500000000
       257    1       14.460000000000      21.690000000000       0.000000000000
       258    2       16.267500000000      23.497500000000       0.000000000000
       259    1       14.460000000000      23.497500000000       1.807500000000
       260    1       16.267500000000      21.690000000000       1.807500000000
       261    2       18.075000000000      21.690000000000       0.000000000000
       262    2       19.882500000000      23.497500000000       0.000000000000
       263    1       18.075000000000      23.497500000000       1.807500000000
       264    2       19.882500000000      21.690000000000       1.807500000000
       265    2       21.690000000000      21.690000000000       0.000000000000
       266    1       23.497500000000      23.497500000000       0.000000000000
       267    2       21.690000000000      23.497500000000       1.807500000000
       268    2       23.497500000000      21.690000000000       1.807500000000
       269    2       25.305000000000      21.690000000000       0.000000000000
       270    2       27.112500000000      23.497500000000       0.000000000000
       271    2       25.305000000000      23.497500000000       1.807500000000
       272    2       27.112500000000      21.690000000000       1.807500000000
       273    2       28.920000000000      21.690000000000       0.000000000000
       274    1       30.727500000000      23.497500000000       0.000000000000
       275    2       28.920000000000      23.497500000000       1.807500000000
       276    1       30.727500000000      21.690000000000       1.807500000000
       277    1       32.535000000000      21.690000000000       0.000000000000
       278    1       34.342500000000      23.497500000000       0.000000000000
       279    2       32.535000000000      23.497500000000       1.807500000000
       280    2       34.342500000000      21.690000000000       1.807500000000
       281    1        0.000000000000      25.305000000000       0.000000000000
       282    2        1.807500000000      27.112500000000       0.000000000000
       283    2        0.000000000000      27.112500000000       1.807500000000
       284    2        1.807500000000      25.305000000000       1.807500000000
       285    2        3.615000000000      25.305000000000       0.000000000000
       286    2        5.422500000000      27.112500000000       0.000000000000
       287    2        3.615000000000      27.112500000000       1.807500000000
       288    1        5.422500000000      25.305000000000       1.807500000000
       289    1        7.230000000000      25.305000000000       0.000000000000
       290    1        9.037500000000      27.112500000000       0.000000000000
       291    2        7.230000000000      27.112500000000       1.807500000000
       292    2        9.037500000000      25.305000000000       1.807500000000
       293    2       10.845000000000      25.305000000000       0.000000000000
       294    1       12.652500000000      27.112500000000       0.000000000000
       295    1       10.845000000000      27.112500000000       1.807500000000
       296    1       12.652500000000      25.305000000000       1.807500000000
       297    1       14.460000000000      25.305000000000       0.000000000000
       298    1       16.267500000000      27.112500000000       0.000000000000
       299    2       14.460000000000      27.112500000000       1.807500000000
       300    2       16.267500000000      25.305000000000       1.807500000000
       301    1       18.075000000000      25.305000000000       0.000000000000
       302    2       19.882500000000      27.112500000000       0.000000000000
       303    1       18.075000000000      27.112500000000       1.807500000000
       304    1       19.882500000000      25.305000000000       1.807500000000
       305    1       21.690000000000      25.305000000000       0.000000000000
       306    1       23.497500000000      27.112500000000       0.000000000000
       307    1       21.690000000000      27.112500000000       1.807500000000
       308    1       23.497500000000      25.305000000000       1.807500000000
       309    2       25.305000000000      25.305000000000       0.000000000000
       310    1       27.112500000000      27.112500000000       0.000000000000
       311    2       25.305000000000      27.112500000000       1.807500000000
       312    2       27.112500000000      25.305000000000       1.807500000000
       313    1       28.920000000000      25.305000000000       0.000000000000
       314    2       30.727500000000      27.112500000000       0.000000000000
       315    2       28.920000000000      27.112500000000       1.807500000000
       316    2       30.727500000000      25.305000000000       1.807500000000
       317    1       32.535000000000      25.305000000000       0.000000000000
       318    1       34.342500000000      27.112500000000       0.000000000000
       319    1       32.535000000000      27.112500000000       1.807500000000
       320    2       34.342500000000      25.305000000000       1.807500000000
       321    2        0.000000000000      28.920000000000       0.000000000000
       322    2        1.807500000000      30.727500000000       0.000000000000
       323    1        0.000000000000      30.727500000000       1.807500000000
       324    2        1.807500000000      28.920000000000       1.807500000000
       325    2        3.615000000000      28.920000000000       0.000000000000
       326    1        5.422500000000      30.727500000000       0.000000000000
       327    2        3.615000000000      30.727500000000       1.807500000000
       328    1        5.422500000000      28.920000000000       1.807500000000
       329    1        7.230000000000      28.920000000000       0.000000000000
       330    2        9.037500000000      30.727500000000       0.000000000000
       331    2        7.230000000000      30.727500000000       1.807500000000
       332    1        9.037500000000      28.920000000000       1.807500000000
       333    1       10.845000000000      28.920000000000       0.000000000000
       334    2       12.652500000000      30.727500000000       0.000000000000
       335    1       10.845000000000      30.727500000000       1.807500000000
       336    2       12.652500000000      28.920000000000       1.807500000000
       337    2       14.460000000000      28.920000000000       0.000000000000
       338    2       16.267500000000      30.727500000000       0.000000000000
       339    2       14.460000000000      30.727500000000       1.807500000000
       340    2       16.267500000000      28.920000000000       1.807500000000
       341    1       18.075000000000      28.920000000000       0.000000000000
       342    2       19.882500000000      30.727500000000       0.000000000000
       343    1       18.075000000000      30.727500000000       1.807500000000
       344    1       19.882500000000      28.920000000000       1.807500000000
       345    2       21.690000000000      28.920000000000       0.000000000000
       346    2       23.497500000000      30.727500000000       0.000000000000
       347    1       21.690000000000      30.727500000000       1.807500000000
       348    2       23.497500000000      28.920000000000       1.807500000000
       349    2       25.305000000000      28.920000000000       0.000000000000
       350    2       27.112500000000      30.727500000000       0.000000000000
       351    2       25.305000000000      30.727500000000       1.807500000000
       352    1       27.112500000000      28.920000000000       1.807500000000
       353    2       28.920000000000      28.920000000000       0.000000000000
       354    2       30.727500000000      30.727500000000       0.000000000000
       355    2       28.920000000000      30.727500000000       1.807500000000
       356    1       30.727500000000      28.920000000000       1.807500000000
       357    2       32.535000000000      28.920000000000       0.000000000000
       358    2       34.342500000000      30.727500000000       0.000000000000
       359    2       32.535000000000      30.727500000000       1.807500000000
       360    2       34.342500000000      28.920000000000       1.807500000000
       361    1        0.000000000000      32.535000000000       0.000000000000
       362    2        1.807500000000      34.342500000000       0.000000000000
       363    1        0.000000000000      34.342500000000       1.807500000000
       364    2        1.807500000000      32.535000000000       1.807500000000
       365    2        3.615000000000      32.535000000000       0.000000000000